ITEM: TIMESTEP
0
ITEM: NUMBER OF ATOMS
220
ITEM: BOX BOUNDS ff ff ff
0.0000000000000000e+00 4.0043469059028844e+01
0.0000000000000000e+00 4.0137049353032907e+01
0.0000000000000000e+00 3.0079250911878916e+01
ITEM: ATOMS id type xs ys zs
29 1 0.301283 0.356812 0.353729
55 1 0.367237 0.351416 0.358823
46 1 0.302779 0.280906 0.468173
23 1 0.35583 0.251678 0.432425
38 1 0.275506 0.333474 0.428824
12 1 0.33181 0.361725 0.426865
54 1 0.328557 0.304245 0.393077
8 1 0.359083 0.309158 0.466213
34 1 0.338091 0.409797 0.3734
39 1 0.255621 0.37537 0.491758
31 1 0.261514 0.440605 0.479597
35 1 0.318207 0.451694 0.436333
30 1 0.281399 0.398709 0.416663
13 1 0.311925 0.403621 0.489798
2 1 0.368617 0.41471 0.446535
40 1 0.37187 0.47219 0.480322
25 1 0.43319 0.346019 0.363916
50 1 0.409493 0.272174 0.476414
24 1 0.39451 0.298848 0.398171
51 1 0.448173 0.319345 0.44216
45 1 0.454066 0.38458 0.429998
9 1 0.397763 0.356328 0.431958
3 1 0.418639 0.394889 0.49804
44 1 0.404044 0.404401 0.378493
16 1 0.474943 0.423141 0.49608
15 1 0.424921 0.442962 0.444575
14 1 0.374899 0.462783 0.39307
47 1 0.352801 0.261085 0.519678
17 1 0.249729 0.310135 0.50392
4 1 0.306032 0.338386 0.50196
43 1 0.320627 0.328875 0.621507
18 1 0.29975 0.290314 0.555425
5 1 0.356054 0.318565 0.553465
19 1 0.349772 0.270493 0.60693
52 1 0.276498 0.41393 0.55784
42 1 0.270605 0.348695 0.570002
6 1 0.326909 0.376947 0.568042
53 1 0.315178 0.461101 0.523586
21 1 0.330162 0.434427 0.601829
7 1 0.365589 0.424118 0.533787
22 1 0.368842 0.481598 0.567575
1 1 0.362336 0.366638 0.5
20 1 0.291482 0.387256 0.636084
48 1 0.357435 0.38186 0.641177
26 1 0.463157 0.292671 0.520403
36 1 0.406465 0.281582 0.563667
10 1 0.412746 0.329654 0.510202
11 1 0.392862 0.37155 0.573135
33 1 0.449165 0.399802 0.571176
32 1 0.46905 0.357906 0.508242
27 1 0.443272 0.334567 0.583337
49 1 0.396115 0.42903 0.606923
41 1 0.421892 0.452369 0.531827
28 1 0.423388 0.376463 0.646271
37 1 0.38658 0.323478 0.6266
188 1 0.615015 0.249146 0.44771
219 1 0.624389 0.298835 0.390834
211 1 0.569409 0.296791 0.440049
207 1 0.53162 0.38634 0.499857
204 1 0.555428 0.401825 0.420136
203 1 0.578783 0.34648 0.383174
182 1 0.523803 0.344436 0.432389
169 1 0.58042 0.355537 0.466194
194 1 0.633763 0.348524 0.333959
199 1 0.67556 0.391692 0.37101
189 1 0.674826 0.277089 0.440193
177 1 0.6354 0.357581 0.416979
173 1 0.626026 0.307892 0.473855
167 1 0.677197 0.400748 0.454031
220 1 0.6842 0.326778 0.383317
174 1 0.685837 0.335834 0.466338
209 1 0.725997 0.369945 0.420368
190 1 0.734638 0.305031 0.432675
195 1 0.610408 0.403869 0.370921
217 1 0.563245 0.443729 0.487604
196 1 0.587053 0.459213 0.407884
218 1 0.623056 0.471671 0.480087
200 1 0.652205 0.447036 0.407973
178 1 0.612045 0.412925 0.453942
205 1 0.688208 0.459494 0.480176
180 1 0.733814 0.411849 0.487836
179 1 0.717356 0.434859 0.408061
212 1 0.585867 0.273781 0.519824
201 1 0.621869 0.286239 0.592027
170 1 0.596878 0.332527 0.545969
208 1 0.548077 0.36333 0.579632
184 1 0.556718 0.298416 0.591939
183 1 0.54026 0.321426 0.512164
176 1 0.638674 0.375694 0.583021
166 1 0.637037 0.366638 0.5
202 1 0.598514 0.341584 0.62899
193 1 0.640311 0.384751 0.666041
216 1 0.710829 0.289546 0.512396
191 1 0.687021 0.274062 0.592116
215 1 0.651018 0.261604 0.519913
175 1 0.662029 0.32035 0.546058
168 1 0.693654 0.377738 0.533806
198 1 0.695291 0.386795 0.616826
197 1 0.718646 0.331451 0.579864
210 1 0.742455 0.346935 0.500143
181 1 0.750271 0.388839 0.567611
192 1 0.663666 0.329407 0.629079
213 1 0.589874 0.406498 0.616683
186 1 0.599248 0.456187 0.559807
185 1 0.539437 0.428245 0.567325
171 1 0.588237 0.397441 0.533662
214 1 0.649685 0.43444 0.609166
187 1 0.659059 0.484129 0.55229
172 1 0.648048 0.425383 0.526145
206 1 0.704665 0.436484 0.559951
83 1 0.345479 0.62916 0.334373
96 1 0.264753 0.628471 0.443048
71 1 0.270688 0.56282 0.450121
87 1 0.334742 0.547416 0.440478
65 1 0.380565 0.586355 0.465418
66 1 0.353907 0.634929 0.417187
82 1 0.372137 0.580586 0.382604
81 1 0.398795 0.532012 0.430836
58 1 0.316512 0.601759 0.475061
88 1 0.308084 0.59599 0.392247
103 1 0.362533 0.686812 0.37116
104 1 0.302148 0.661641 0.385174
77 1 0.258817 0.694122 0.435974
76 1 0.319202 0.719293 0.42196
62 1 0.310576 0.66741 0.467987
61 1 0.370961 0.692581 0.453973
75 1 0.379587 0.744464 0.407946
107 1 0.352732 0.746924 0.488555
92 1 0.405789 0.636717 0.369571
105 1 0.432325 0.559644 0.497431
91 1 0.432447 0.588143 0.417803
60 1 0.414217 0.642486 0.452385
102 1 0.465976 0.615775 0.484398
98 1 0.422843 0.694369 0.406358
73 1 0.460041 0.681426 0.477324
74 1 0.466098 0.644274 0.40477
97 1 0.416785 0.731521 0.478912
70 1 0.264631 0.599972 0.522676
100 1 0.307886 0.549877 0.521088
99 1 0.301829 0.587029 0.593642
64 1 0.35371 0.588816 0.546027
106 1 0.37194 0.534473 0.511445
80 1 0.345084 0.536934 0.592054
110 1 0.362138 0.594586 0.62884
95 1 0.258695 0.665623 0.515602
69 1 0.258573 0.637123 0.59523
57 1 0.310454 0.638911 0.547615
108 1 0.292347 0.721754 0.502569
90 1 0.292225 0.693254 0.582197
85 1 0.352534 0.700811 0.617396
67 1 0.370764 0.646468 0.582813
68 1 0.344106 0.695042 0.534582
56 1 0.362336 0.640699 0.5
86 1 0.325876 0.749385 0.569164
89 1 0.318883 0.64468 0.630429
79 1 0.405469 0.562105 0.57804
78 1 0.465854 0.587275 0.564026
59 1 0.408159 0.679638 0.524939
109 1 0.422523 0.619757 0.614826
101 1 0.459919 0.652927 0.556952
93 1 0.416588 0.685408 0.607753
63 1 0.414095 0.613987 0.532013
94 1 0.38993 0.733981 0.559522
72 1 0.453983 0.718578 0.549879
84 1 0.379192 0.652238 0.665627
130 1 0.637783 0.633179 0.332455
163 1 0.546139 0.63729 0.424355
159 1 0.609192 0.550911 0.431755
116 1 0.63741 0.636939 0.416228
132 1 0.546149 0.571277 0.429631
131 1 0.591966 0.602228 0.381043
121 1 0.654636 0.585621 0.46694
117 1 0.591593 0.605988 0.464815
152 1 0.654992 0.688672 0.374633
162 1 0.591956 0.668241 0.375768
149 1 0.609165 0.723733 0.417945
145 1 0.535032 0.673653 0.496562
141 1 0.546129 0.703302 0.41908
140 1 0.573984 0.727078 0.4926
123 1 0.591583 0.672 0.45954
114 1 0.654619 0.692431 0.458405
148 1 0.63702 0.747509 0.491465
138 1 0.672235 0.530544 0.43388
147 1 0.711187 0.583969 0.429919
158 1 0.655009 0.581862 0.383168
115 1 0.693588 0.639046 0.462978
128 1 0.71117 0.690779 0.421383
153 1 0.693961 0.635286 0.379206
157 1 0.739032 0.673757 0.498163
129 1 0.75014 0.637393 0.425957
127 1 0.672201 0.744164 0.41681
156 1 0.700063 0.727142 0.49359
154 1 0.580113 0.646111 0.620794
151 1 0.574011 0.554256 0.50641
150 1 0.535042 0.607641 0.501837
126 1 0.601873 0.537234 0.58319
125 1 0.562904 0.590619 0.578617
124 1 0.523935 0.644004 0.574043
113 1 0.619455 0.588966 0.541595
112 1 0.580486 0.642351 0.537022
155 1 0.619082 0.592726 0.625367
143 1 0.637054 0.533889 0.508535
142 1 0.664909 0.557665 0.582055
119 1 0.636664 0.644458 0.583772
161 1 0.682118 0.613157 0.624232
137 1 0.70009 0.55432 0.5074
120 1 0.682491 0.609397 0.54046
111 1 0.637037 0.640699 0.5
160 1 0.727935 0.644108 0.575645
146 1 0.739043 0.607745 0.503438
136 1 0.727946 0.578096 0.58092
144 1 0.562887 0.697429 0.570081
165 1 0.619065 0.699536 0.616832
164 1 0.664882 0.730487 0.568245
122 1 0.619438 0.695776 0.53306
118 1 0.682481 0.675409 0.535185
134 1 0.682108 0.679169 0.618957
133 1 0.727925 0.71012 0.570369
139 1 0.601839 0.750854 0.56612
135 1 0.636291 0.648218 0.667545
ITEM: TIMESTEP
400
ITEM: NUMBER OF ATOMS
220
ITEM: BOX BOUNDS ff ff ff
0.0000000000000000e+00 4.0043469059028844e+01
0.0000000000000000e+00 4.0137049353032907e+01
0.0000000000000000e+00 3.0079250911878916e+01
ITEM: ATOMS id type xs ys zs
38 1 0.289317 0.367939 0.44782
54 1 0.335995 0.334165 0.400512
46 1 0.318725 0.311204 0.474521
23 1 0.364833 0.282259 0.425436
34 1 0.348163 0.437187 0.379208
29 1 0.314828 0.384337 0.370256
12 1 0.350133 0.388847 0.437796
35 1 0.337793 0.474801 0.441148
30 1 0.299235 0.427463 0.429876
25 1 0.451812 0.365347 0.369075
50 1 0.419786 0.285105 0.460375
24 1 0.40535 0.324489 0.403712
51 1 0.465544 0.32876 0.434601
45 1 0.471623 0.413942 0.409969
9 1 0.422954 0.378245 0.432369
3 1 0.443279 0.42988 0.476711
44 1 0.421458 0.424291 0.366237
16 1 0.494128 0.483176 0.45798
15 1 0.439452 0.466227 0.419049
40 1 0.399626 0.476718 0.482794
14 1 0.389684 0.485621 0.396462
2 1 0.389678 0.430171 0.435621
55 1 0.382837 0.376039 0.372279
8 1 0.37221 0.335903 0.467715
32 1 0.470513 0.378598 0.489506
47 1 0.365498 0.282797 0.511664
17 1 0.27895 0.34786 0.529708
19 1 0.37646 0.293647 0.593599
43 1 0.36257 0.344121 0.627885
18 1 0.328773 0.32 0.562574
5 1 0.385673 0.338539 0.545239
52 1 0.321233 0.435401 0.575405
42 1 0.308044 0.375361 0.588757
6 1 0.366168 0.392018 0.569894
53 1 0.354969 0.481464 0.551859
21 1 0.371456 0.448445 0.613664
20 1 0.343597 0.401025 0.644226
4 1 0.3343 0.366123 0.511932
13 1 0.349835 0.432224 0.497057
31 1 0.302572 0.466971 0.50516
39 1 0.29174 0.407433 0.509918
26 1 0.484167 0.299177 0.503203
36 1 0.427552 0.294744 0.544867
22 1 0.416585 0.490743 0.58252
11 1 0.42751 0.382318 0.557816
33 1 0.473337 0.417676 0.550747
48 1 0.40199 0.39553 0.634404
27 1 0.473871 0.344107 0.557782
49 1 0.438564 0.437733 0.609791
41 1 0.459529 0.472009 0.526438
28 1 0.46391 0.382226 0.621069
37 1 0.420009 0.332837 0.611086
7 1 0.402842 0.437308 0.545192
1 1 0.390099 0.388309 0.495016
10 1 0.432035 0.336652 0.494183
188 1 0.587615 0.281712 0.443028
219 1 0.60158 0.329331 0.388476
211 1 0.54641 0.322584 0.423716
169 1 0.557665 0.384012 0.457774
173 1 0.599289 0.338864 0.470189
203 1 0.559746 0.372832 0.376287
182 1 0.506747 0.368917 0.414191
177 1 0.61186 0.388648 0.419314
194 1 0.612435 0.3799 0.339249
209 1 0.693149 0.395939 0.427246
220 1 0.659296 0.355658 0.387569
189 1 0.64626 0.307886 0.441618
174 1 0.653916 0.362599 0.465492
190 1 0.702408 0.335862 0.436171
210 1 0.712157 0.363512 0.503566
195 1 0.586728 0.429259 0.366523
217 1 0.546247 0.473101 0.491377
196 1 0.562838 0.478238 0.404025
218 1 0.610306 0.484642 0.480178
200 1 0.626888 0.469623 0.400471
178 1 0.584981 0.43637 0.450992
205 1 0.675301 0.483168 0.496151
180 1 0.706419 0.429476 0.489589
179 1 0.689974 0.457196 0.414646
204 1 0.530617 0.426765 0.407767
167 1 0.649059 0.429307 0.457786
199 1 0.65174 0.41831 0.372894
207 1 0.508791 0.424133 0.481819
212 1 0.555445 0.300339 0.50448
201 1 0.589226 0.310447 0.579164
170 1 0.570215 0.360691 0.538136
208 1 0.521205 0.390219 0.578822
184 1 0.528889 0.327422 0.569491
183 1 0.517643 0.345311 0.491615
175 1 0.634859 0.350566 0.544314
215 1 0.617938 0.294501 0.516192
202 1 0.570452 0.364522 0.621326
192 1 0.632584 0.359795 0.628794
166 1 0.612873 0.395441 0.50086
216 1 0.678645 0.315503 0.513471
191 1 0.649493 0.309483 0.589548
197 1 0.687965 0.359048 0.582713
213 1 0.559417 0.430415 0.609902
186 1 0.580101 0.472224 0.556251
185 1 0.518322 0.451358 0.558593
171 1 0.561936 0.419705 0.525887
214 1 0.617821 0.459959 0.617696
187 1 0.66668 0.493743 0.598846
172 1 0.638595 0.451926 0.542837
206 1 0.69667 0.455487 0.563424
198 1 0.666537 0.416785 0.611914
181 1 0.722029 0.404183 0.564788
193 1 0.609606 0.408301 0.657128
176 1 0.607112 0.403725 0.579395
168 1 0.66599 0.402223 0.530875
83 1 0.366248 0.604651 0.342053
96 1 0.294441 0.607371 0.442331
71 1 0.301922 0.545509 0.456348
87 1 0.367834 0.526903 0.451188
56 1 0.390359 0.620607 0.499395
66 1 0.380402 0.609288 0.419845
82 1 0.392299 0.55508 0.386139
88 1 0.335627 0.576415 0.396734
58 1 0.348164 0.578408 0.482695
104 1 0.330684 0.638106 0.387227
103 1 0.386242 0.659037 0.37042
107 1 0.379241 0.722208 0.476695
77 1 0.29586 0.672873 0.429398
76 1 0.347632 0.695497 0.416818
62 1 0.339888 0.642634 0.464537
61 1 0.396054 0.668269 0.449705
75 1 0.405828 0.715167 0.40061
108 1 0.323783 0.698108 0.491287
92 1 0.423509 0.613001 0.363381
65 1 0.413356 0.568907 0.469997
91 1 0.452817 0.568501 0.394373
60 1 0.438729 0.622954 0.450601
102 1 0.472435 0.570876 0.46331
98 1 0.446494 0.670324 0.400049
73 1 0.480801 0.669036 0.469974
74 1 0.478881 0.620153 0.3922
97 1 0.444444 0.712114 0.468079
81 1 0.435258 0.521186 0.43496
70 1 0.288668 0.582804 0.517958
100 1 0.327029 0.534257 0.528304
99 1 0.322467 0.575588 0.590714
64 1 0.379312 0.575539 0.550786
69 1 0.288189 0.62077 0.582713
80 1 0.36512 0.527727 0.596351
57 1 0.337287 0.621806 0.539198
89 1 0.346204 0.629766 0.615808
95 1 0.288651 0.646146 0.50795
86 1 0.356388 0.725722 0.548799
68 1 0.37102 0.674467 0.525713
85 1 0.378422 0.687492 0.609699
90 1 0.322397 0.674151 0.569901
79 1 0.424213 0.549326 0.587427
78 1 0.481235 0.566383 0.568092
59 1 0.430621 0.662631 0.516666
109 1 0.442688 0.605581 0.616839
101 1 0.473317 0.636293 0.564576
93 1 0.439446 0.674042 0.600411
63 1 0.4405 0.593865 0.531809
94 1 0.415857 0.713781 0.546152
72 1 0.480677 0.693396 0.542254
84 1 0.398034 0.644802 0.652371
67 1 0.403257 0.632171 0.57669
106 1 0.393877 0.523896 0.522192
110 1 0.383546 0.58398 0.631506
105 1 0.453444 0.528945 0.514205
130 1 0.611421 0.601656 0.346306
163 1 0.521016 0.584759 0.431752
159 1 0.598271 0.519713 0.422527
116 1 0.611439 0.607428 0.421889
132 1 0.534643 0.524603 0.442994
131 1 0.57134 0.568062 0.389982
121 1 0.632739 0.55503 0.475671
117 1 0.573952 0.570199 0.471021
158 1 0.642219 0.562142 0.397108
123 1 0.560695 0.633014 0.465374
162 1 0.558677 0.62583 0.381112
145 1 0.505896 0.616364 0.49855
152 1 0.621805 0.655661 0.381492
148 1 0.590513 0.711664 0.488186
149 1 0.573769 0.683356 0.423699
127 1 0.627387 0.709638 0.421726
141 1 0.519652 0.659494 0.421097
114 1 0.61495 0.659397 0.463198
138 1 0.658551 0.510203 0.433209
147 1 0.691279 0.560761 0.449172
129 1 0.716821 0.620884 0.435085
115 1 0.663124 0.611702 0.468652
128 1 0.670588 0.666292 0.429267
153 1 0.669855 0.616869 0.381791
156 1 0.654226 0.704931 0.492675
157 1 0.702121 0.65577 0.496363
154 1 0.563265 0.626757 0.622171
135 1 0.613975 0.633785 0.66018
150 1 0.522869 0.556158 0.507392
126 1 0.597483 0.516674 0.606319
125 1 0.542616 0.55794 0.596169
124 1 0.507272 0.60954 0.613626
113 1 0.600903 0.565071 0.552971
112 1 0.551518 0.604628 0.54709
155 1 0.596574 0.575645 0.634439
119 1 0.6143 0.619195 0.584768
151 1 0.57182 0.524962 0.52204
111 1 0.609493 0.610248 0.507286
143 1 0.63516 0.513275 0.541204
160 1 0.697383 0.637263 0.571487
142 1 0.648727 0.553103 0.603344
136 1 0.710487 0.580572 0.585261
161 1 0.665615 0.606776 0.62335
137 1 0.689383 0.539132 0.529807
120 1 0.659149 0.590786 0.544421
146 1 0.715945 0.594848 0.507076
144 1 0.528668 0.665525 0.574698
165 1 0.588677 0.677838 0.613881
164 1 0.624985 0.70654 0.565224
122 1 0.583057 0.656657 0.538377
118 1 0.648905 0.653774 0.530619
134 1 0.649544 0.667085 0.613377
133 1 0.686899 0.694949 0.556073
139 1 0.562286 0.713484 0.560386
140 1 0.534534 0.684185 0.493386
ITEM: TIMESTEP
800
ITEM: NUMBER OF ATOMS
220
ITEM: BOX BOUNDS ff ff ff
0.0000000000000000e+00 4.0043469059028844e+01
0.0000000000000000e+00 4.0137049353032907e+01
0.0000000000000000e+00 3.0079250911878916e+01
ITEM: ATOMS id type xs ys zs
38 1 0.308991 0.374447 0.450895
54 1 0.348965 0.339606 0.41021
46 1 0.3304 0.315878 0.483826
23 1 0.376566 0.284712 0.44505
34 1 0.361537 0.439235 0.382022
29 1 0.322317 0.394767 0.37946
12 1 0.366708 0.391701 0.435441
35 1 0.354384 0.478939 0.442233
30 1 0.31665 0.431725 0.437745
31 1 0.311701 0.480964 0.503725
25 1 0.442867 0.362582 0.356716
50 1 0.433183 0.298567 0.473737
24 1 0.409279 0.322715 0.40019
51 1 0.468417 0.333394 0.427632
45 1 0.47877 0.41304 0.36067
9 1 0.426555 0.380217 0.429805
3 1 0.450818 0.425338 0.487951
44 1 0.419818 0.425055 0.36841
16 1 0.488243 0.496278 0.467093
15 1 0.463938 0.456174 0.4172
40 1 0.427837 0.491031 0.468119
14 1 0.407987 0.48336 0.388416
2 1 0.402901 0.439279 0.442589
55 1 0.383651 0.381542 0.360216
32 1 0.487749 0.391304 0.436461
8 1 0.387674 0.339995 0.470255
10 1 0.450045 0.359627 0.501322
47 1 0.383593 0.293212 0.523415
18 1 0.34106 0.324997 0.563422
52 1 0.31506 0.442457 0.585712
42 1 0.317716 0.382291 0.584604
6 1 0.372284 0.406395 0.573979
53 1 0.352381 0.481241 0.559616
21 1 0.383093 0.457182 0.618233
20 1 0.346719 0.415516 0.640202
4 1 0.345644 0.373007 0.513755
39 1 0.300068 0.41528 0.518372
17 1 0.293703 0.349942 0.523997
43 1 0.366433 0.357805 0.62637
13 1 0.350885 0.438486 0.502897
7 1 0.403565 0.454205 0.527269
36 1 0.442015 0.309996 0.550104
22 1 0.411976 0.502092 0.573265
11 1 0.438884 0.402007 0.564264
33 1 0.490913 0.431082 0.567978
48 1 0.40721 0.402819 0.636608
27 1 0.478357 0.353902 0.577723
49 1 0.439922 0.454631 0.606845
41 1 0.46425 0.472985 0.531079
28 1 0.470503 0.397348 0.63016
37 1 0.428404 0.34615 0.619373
26 1 0.496538 0.325979 0.508208
5 1 0.39665 0.352338 0.553255
19 1 0.386986 0.302336 0.605621
1 1 0.397286 0.395436 0.499059
188 1 0.578671 0.290523 0.432791
219 1 0.591271 0.333535 0.386633
211 1 0.531695 0.332935 0.433708
169 1 0.542796 0.389995 0.463598
173 1 0.587872 0.340838 0.466175
203 1 0.55143 0.381442 0.382184
182 1 0.497525 0.3544 0.373251
177 1 0.605321 0.390446 0.419777
194 1 0.608253 0.377175 0.333754
212 1 0.551713 0.302933 0.50174
209 1 0.692077 0.395409 0.434868
220 1 0.649545 0.360731 0.382708
189 1 0.637187 0.310143 0.434504
174 1 0.647846 0.367962 0.466921
190 1 0.693124 0.333509 0.434998
195 1 0.58304 0.432283 0.365038
217 1 0.546383 0.488666 0.47186
196 1 0.553625 0.482275 0.384293
218 1 0.605911 0.482124 0.484859
200 1 0.620208 0.467424 0.407145
178 1 0.573221 0.44055 0.449841
207 1 0.505872 0.44169 0.479318
180 1 0.705122 0.4289 0.495996
179 1 0.683527 0.453039 0.427815
204 1 0.52585 0.433658 0.400418
167 1 0.642724 0.430166 0.467395
199 1 0.647336 0.421786 0.371187
193 1 0.58062 0.398168 0.648538
201 1 0.586285 0.305443 0.568357
170 1 0.559889 0.359684 0.535782
208 1 0.527675 0.386431 0.598435
184 1 0.526981 0.320252 0.574334
192 1 0.626753 0.357311 0.617631
175 1 0.618879 0.346482 0.536107
215 1 0.615735 0.292228 0.504145
202 1 0.569166 0.341275 0.622887
191 1 0.645093 0.29804 0.574192
183 1 0.501012 0.386943 0.516202
216 1 0.671364 0.315454 0.506354
197 1 0.678419 0.351491 0.571677
210 1 0.702985 0.362476 0.502132
181 1 0.71666 0.397222 0.569803
213 1 0.540869 0.440289 0.607368
186 1 0.578572 0.474287 0.563642
185 1 0.519986 0.486235 0.566305
171 1 0.548674 0.426707 0.531478
214 1 0.600652 0.451874 0.631285
187 1 0.649252 0.484494 0.608237
172 1 0.630113 0.450015 0.548993
206 1 0.686893 0.450976 0.566415
198 1 0.649706 0.418503 0.615377
205 1 0.67283 0.482424 0.497973
168 1 0.659241 0.398814 0.536913
176 1 0.595177 0.401008 0.578608
166 1 0.600137 0.396707 0.498915
83 1 0.37623 0.596753 0.343734
96 1 0.307898 0.598764 0.443308
71 1 0.321825 0.533071 0.459709
87 1 0.38199 0.528284 0.424956
56 1 0.404766 0.608998 0.495896
66 1 0.389076 0.597135 0.418269
104 1 0.339893 0.629931 0.38277
88 1 0.340041 0.566983 0.391038
58 1 0.360386 0.570293 0.480161
62 1 0.351283 0.636895 0.466339
103 1 0.393933 0.651919 0.373774
107 1 0.396624 0.712326 0.477478
77 1 0.306534 0.662817 0.428171
76 1 0.36106 0.685324 0.417994
108 1 0.335976 0.692565 0.488878
92 1 0.434095 0.606747 0.354371
65 1 0.419894 0.554135 0.471005
91 1 0.473385 0.566689 0.376019
60 1 0.451947 0.606726 0.43511
102 1 0.482739 0.558641 0.459422
98 1 0.452038 0.662447 0.390309
73 1 0.492949 0.638577 0.481539
74 1 0.492473 0.617703 0.35862
97 1 0.460219 0.690835 0.465003
81 1 0.453374 0.516691 0.408729
75 1 0.41649 0.706372 0.403269
61 1 0.412473 0.656399 0.448656
82 1 0.413543 0.5502 0.369937
70 1 0.304729 0.581701 0.522388
100 1 0.333112 0.535283 0.541754
99 1 0.338011 0.571765 0.59416
89 1 0.354524 0.630068 0.622925
69 1 0.304878 0.618122 0.581931
80 1 0.371344 0.523267 0.612665
57 1 0.354573 0.613391 0.540058
95 1 0.302044 0.638412 0.506389
86 1 0.372828 0.719542 0.549296
90 1 0.335355 0.670603 0.566605
79 1 0.43625 0.547866 0.609939
78 1 0.489964 0.56489 0.577978
59 1 0.443199 0.647575 0.521487
109 1 0.451716 0.603251 0.623393
101 1 0.494277 0.625625 0.563136
93 1 0.450531 0.662283 0.604076
63 1 0.458207 0.59069 0.521423
94 1 0.431633 0.705158 0.539971
72 1 0.488374 0.684836 0.547527
84 1 0.409649 0.638362 0.655232
67 1 0.405547 0.620485 0.581069
106 1 0.379457 0.510537 0.500412
110 1 0.387341 0.582247 0.631542
105 1 0.452362 0.531093 0.526358
64 1 0.397111 0.561017 0.550596
85 1 0.3936 0.677617 0.601776
68 1 0.387709 0.667835 0.522137
130 1 0.595154 0.599528 0.344008
163 1 0.517488 0.597463 0.423235
159 1 0.589849 0.516765 0.419098
116 1 0.58775 0.603396 0.429268
132 1 0.514982 0.523977 0.406567
131 1 0.555113 0.565009 0.380026
121 1 0.612781 0.55649 0.482475
117 1 0.551837 0.556727 0.459643
158 1 0.625653 0.558673 0.391846
123 1 0.549213 0.639631 0.462603
162 1 0.550623 0.633118 0.376972
115 1 0.642945 0.613764 0.463933
138 1 0.649724 0.51473 0.438986
153 1 0.64657 0.611789 0.379789
152 1 0.604471 0.656957 0.371042
148 1 0.582514 0.70789 0.495729
149 1 0.557101 0.69089 0.420392
127 1 0.614039 0.71092 0.421193
141 1 0.506526 0.666822 0.411606
114 1 0.602725 0.659851 0.456707
156 1 0.641368 0.701039 0.491489
140 1 0.522472 0.697532 0.486778
128 1 0.658501 0.666592 0.417577
147 1 0.673307 0.567757 0.437795
129 1 0.696013 0.623758 0.42887
157 1 0.682668 0.657069 0.492559
154 1 0.556919 0.625307 0.660717
135 1 0.61433 0.638181 0.669986
150 1 0.513497 0.532982 0.519973
126 1 0.595009 0.515521 0.617
125 1 0.542452 0.536984 0.593633
124 1 0.507492 0.597732 0.640831
113 1 0.595109 0.567249 0.569049
112 1 0.545281 0.599078 0.579486
155 1 0.582586 0.571382 0.642298
119 1 0.593705 0.627148 0.596075
151 1 0.570968 0.523086 0.524788
111 1 0.585635 0.607148 0.510867
145 1 0.521721 0.590029 0.507807
160 1 0.689312 0.636192 0.57022
142 1 0.646718 0.544611 0.606513
136 1 0.692404 0.576634 0.579319
161 1 0.645376 0.603535 0.61962
137 1 0.673448 0.540387 0.507468
120 1 0.643995 0.593088 0.538281
146 1 0.697057 0.600026 0.504541
143 1 0.627762 0.513585 0.543999
144 1 0.518397 0.667669 0.611688
165 1 0.574614 0.681486 0.625141
164 1 0.607568 0.701308 0.564649
122 1 0.557414 0.657356 0.543269
139 1 0.543374 0.709603 0.567098
134 1 0.63943 0.665726 0.612951
133 1 0.670181 0.689553 0.556102
118 1 0.627596 0.650182 0.532127
ITEM: TIMESTEP
1200
ITEM: NUMBER OF ATOMS
220
ITEM: BOX BOUNDS ff ff ff
0.0000000000000000e+00 4.0043469059028844e+01
0.0000000000000000e+00 4.0137049353032907e+01
0.0000000000000000e+00 3.0079250911878916e+01
ITEM: ATOMS id type xs ys zs
29 1 0.326881 0.382514 0.378995
55 1 0.388647 0.375894 0.368637
23 1 0.3771 0.286807 0.442837
38 1 0.304187 0.367604 0.451313
54 1 0.351784 0.333522 0.403436
46 1 0.331672 0.320032 0.477311
8 1 0.392903 0.342971 0.473816
12 1 0.361807 0.391199 0.441415
25 1 0.447955 0.366666 0.357895
45 1 0.482269 0.413335 0.367568
50 1 0.435836 0.299434 0.471777
10 1 0.450832 0.363369 0.500714
32 1 0.490126 0.389443 0.439449
24 1 0.41239 0.325126 0.401665
51 1 0.470955 0.337108 0.424839
9 1 0.429585 0.385313 0.430675
1 1 0.399272 0.399215 0.499594
44 1 0.422192 0.427448 0.360821
34 1 0.365968 0.433072 0.380816
30 1 0.316576 0.42904 0.435026
35 1 0.350516 0.477567 0.435404
2 1 0.402465 0.441551 0.443541
14 1 0.404687 0.485071 0.38832
40 1 0.427622 0.492055 0.467226
15 1 0.456885 0.4497 0.415569
16 1 0.486596 0.496804 0.470851
3 1 0.454111 0.428183 0.49222
47 1 0.382912 0.299229 0.522001
42 1 0.318183 0.382249 0.58136
17 1 0.292396 0.348602 0.525029
18 1 0.340606 0.328078 0.566021
43 1 0.367551 0.366292 0.618542
4 1 0.346374 0.372 0.511791
19 1 0.391191 0.310746 0.602314
5 1 0.397575 0.355695 0.555447
52 1 0.311969 0.444119 0.568083
39 1 0.296698 0.410348 0.506725
31 1 0.305484 0.471674 0.498328
6 1 0.375694 0.416049 0.57114
53 1 0.358301 0.476875 0.564464
7 1 0.40767 0.453706 0.53297
21 1 0.385626 0.46158 0.628733
22 1 0.413099 0.499654 0.582769
13 1 0.35394 0.440826 0.500991
20 1 0.341749 0.422914 0.632994
48 1 0.406604 0.407882 0.642596
26 1 0.491496 0.320026 0.50966
36 1 0.438001 0.313676 0.552686
37 1 0.430546 0.358113 0.619131
11 1 0.438208 0.404563 0.564967
27 1 0.481997 0.352494 0.576051
33 1 0.491293 0.432091 0.577236
49 1 0.444021 0.451334 0.612118
41 1 0.46334 0.476849 0.539028
28 1 0.4697 0.399012 0.6355
194 1 0.586807 0.388851 0.340264
188 1 0.566275 0.293434 0.430767
219 1 0.574032 0.341802 0.388444
211 1 0.52628 0.336864 0.449142
169 1 0.547365 0.393451 0.467263
173 1 0.580389 0.342012 0.472462
189 1 0.624498 0.312948 0.421493
177 1 0.595765 0.392967 0.420024
182 1 0.50683 0.359347 0.370059
195 1 0.576155 0.446502 0.359048
217 1 0.543984 0.487656 0.487545
200 1 0.619456 0.47849 0.405826
204 1 0.519155 0.466173 0.400625
196 1 0.571746 0.503313 0.370041
218 1 0.603848 0.48166 0.494218
207 1 0.51163 0.438981 0.476035
178 1 0.573133 0.449696 0.438792
203 1 0.538832 0.405348 0.391412
216 1 0.659948 0.313733 0.486672
209 1 0.679471 0.395847 0.417326
190 1 0.6803 0.33386 0.414543
174 1 0.637526 0.366082 0.463355
220 1 0.636476 0.362207 0.373361
199 1 0.636189 0.426414 0.375559
179 1 0.676841 0.46095 0.431529
180 1 0.697022 0.423818 0.485149
167 1 0.63485 0.429244 0.463252
201 1 0.586259 0.301098 0.573132
212 1 0.548369 0.299296 0.510283
183 1 0.500484 0.38955 0.523176
170 1 0.555702 0.364014 0.545603
208 1 0.525452 0.388599 0.602165
184 1 0.527365 0.315822 0.580536
166 1 0.597082 0.40086 0.507413
176 1 0.586658 0.403948 0.587238
202 1 0.568134 0.35055 0.61969
215 1 0.60553 0.289058 0.495069
191 1 0.644505 0.293869 0.564132
197 1 0.676838 0.341931 0.559267
168 1 0.656517 0.390959 0.531683
192 1 0.627819 0.347779 0.610313
175 1 0.615167 0.346527 0.538368
198 1 0.651589 0.405459 0.611514
210 1 0.699878 0.360933 0.481556
181 1 0.712668 0.38863 0.550729
193 1 0.599945 0.396235 0.658589
213 1 0.549824 0.44437 0.61885
186 1 0.582615 0.483286 0.566417
185 1 0.521264 0.483255 0.564206
171 1 0.545446 0.429922 0.539833
187 1 0.658953 0.486294 0.597
172 1 0.6269 0.444485 0.553655
206 1 0.687397 0.441251 0.563269
205 1 0.669629 0.481329 0.51445
214 1 0.611329 0.453083 0.62927
83 1 0.377557 0.586467 0.339983
96 1 0.303787 0.591531 0.4439
71 1 0.319718 0.528645 0.463255
87 1 0.378416 0.529121 0.425275
62 1 0.350853 0.628264 0.454707
66 1 0.393629 0.594705 0.418222
104 1 0.335836 0.619802 0.379359
88 1 0.336602 0.560934 0.393728
58 1 0.356092 0.570895 0.475017
106 1 0.374683 0.508628 0.499369
92 1 0.43531 0.603085 0.3562
82 1 0.419143 0.547424 0.378195
91 1 0.476909 0.562361 0.375918
74 1 0.495105 0.61882 0.353817
65 1 0.423923 0.553734 0.468077
81 1 0.458405 0.50793 0.39661
60 1 0.453709 0.60939 0.436991
56 1 0.40214 0.607452 0.494143
102 1 0.484118 0.557355 0.459728
103 1 0.389232 0.644161 0.365504
108 1 0.334552 0.68333 0.485864
76 1 0.358008 0.679654 0.416911
77 1 0.300951 0.648292 0.431018
107 1 0.403053 0.705607 0.469545
61 1 0.409434 0.651486 0.437501
75 1 0.41415 0.696576 0.392042
97 1 0.45975 0.684077 0.462872
98 1 0.453712 0.654498 0.381456
73 1 0.495614 0.632502 0.487783
70 1 0.3004 0.573446 0.519749
100 1 0.325258 0.522578 0.541868
99 1 0.330327 0.57181 0.594359
89 1 0.351359 0.62489 0.619624
69 1 0.29691 0.61874 0.580353
80 1 0.362979 0.526627 0.608669
57 1 0.349835 0.606215 0.5386
110 1 0.386536 0.579294 0.63267
79 1 0.435905 0.552075 0.596375
78 1 0.494689 0.567304 0.591589
64 1 0.388231 0.556636 0.54611
105 1 0.449686 0.528389 0.531913
67 1 0.405052 0.613789 0.574834
101 1 0.492857 0.62624 0.57039
63 1 0.459027 0.585371 0.52573
109 1 0.451732 0.601252 0.624136
84 1 0.402925 0.636065 0.647244
95 1 0.298655 0.63066 0.506138
85 1 0.387509 0.675923 0.597807
68 1 0.386344 0.661466 0.516881
90 1 0.332219 0.66343 0.563041
86 1 0.368376 0.711549 0.545392
59 1 0.445011 0.643328 0.519888
72 1 0.488003 0.683455 0.54369
94 1 0.429455 0.699243 0.545051
93 1 0.445368 0.662855 0.605077
130 1 0.601458 0.598601 0.346592
131 1 0.557854 0.565183 0.380441
163 1 0.512454 0.596958 0.419187
159 1 0.582671 0.521435 0.441553
116 1 0.598235 0.602025 0.426665
132 1 0.5207 0.525538 0.411446
121 1 0.62024 0.560192 0.481652
117 1 0.55785 0.570188 0.464355
152 1 0.61202 0.658842 0.377677
162 1 0.558887 0.629371 0.381562
148 1 0.582534 0.712169 0.487675
149 1 0.563945 0.685935 0.417645
141 1 0.508636 0.659451 0.415563
114 1 0.607895 0.65896 0.459649
140 1 0.523899 0.68876 0.484566
123 1 0.551183 0.631321 0.46399
127 1 0.620433 0.7089 0.418921
147 1 0.6761 0.568625 0.446558
158 1 0.621591 0.548856 0.393947
138 1 0.65258 0.512678 0.454801
128 1 0.66412 0.668888 0.422085
129 1 0.70191 0.620779 0.431271
157 1 0.691484 0.664156 0.495785
153 1 0.654643 0.6088 0.384743
115 1 0.649826 0.618431 0.469771
156 1 0.644595 0.70623 0.487363
145 1 0.527904 0.590089 0.526306
150 1 0.509451 0.532318 0.526554
111 1 0.593998 0.612373 0.513051
125 1 0.547205 0.532048 0.59668
151 1 0.570943 0.532072 0.520791
112 1 0.547188 0.594804 0.605441
154 1 0.558758 0.633327 0.661324
124 1 0.503704 0.613203 0.647383
155 1 0.605266 0.574096 0.646031
143 1 0.631964 0.518908 0.545612
142 1 0.652383 0.549364 0.607258
161 1 0.653529 0.608964 0.625219
137 1 0.680036 0.546614 0.519136
120 1 0.645886 0.594538 0.549124
119 1 0.600358 0.624997 0.597275
126 1 0.606891 0.515509 0.626331
113 1 0.595918 0.567595 0.569787
136 1 0.702749 0.581841 0.579796
146 1 0.702951 0.602351 0.506082
144 1 0.521585 0.671497 0.61242
165 1 0.58025 0.67885 0.612571
122 1 0.551158 0.649215 0.543899
139 1 0.547281 0.708674 0.55574
164 1 0.611463 0.708007 0.557819
134 1 0.644338 0.672936 0.61185
133 1 0.674492 0.701946 0.554616
118 1 0.636201 0.658253 0.536276
160 1 0.686469 0.640198 0.568726
135 1 0.615742 0.641034 0.669259
ITEM: TIMESTEP
1600
ITEM: NUMBER OF ATOMS
220
ITEM: BOX BOUNDS ff ff ff
0.0000000000000000e+00 4.0043469059028844e+01
0.0000000000000000e+00 4.0137049353032907e+01
0.0000000000000000e+00 3.0079250911878916e+01
ITEM: ATOMS id type xs ys zs
29 1 0.328998 0.391971 0.369603
55 1 0.38626 0.374692 0.361647
23 1 0.372026 0.289265 0.444677
38 1 0.304077 0.366715 0.446064
54 1 0.346661 0.339266 0.403714
46 1 0.331887 0.319042 0.481491
8 1 0.387603 0.344203 0.4703
12 1 0.356605 0.393217 0.436255
1 1 0.395295 0.398929 0.499047
39 1 0.292767 0.415213 0.496664
25 1 0.44944 0.364474 0.363548
45 1 0.484606 0.411179 0.349762
50 1 0.429511 0.301121 0.471643
3 1 0.451948 0.416018 0.478821
32 1 0.487413 0.388669 0.423729
24 1 0.409834 0.326516 0.400657
51 1 0.468792 0.325786 0.422565