31
Lattice="7.236025174992916 0.0 0.0 0.0 7.236025174992916 0.0 0.0 0.0 7.236025174992916" Properties=species:S:1:pos:R:3:momenta:R:3:c_unc:R:1:forces:R:3 step=38300.0 target_atoms="7 28 21 4 17 10 20 6 24 30 19 1 25 22 15 12 0 23 5 26 14 29 3 2 11 13 9 18 16 8 27" energy=-51618.710063263 stress="-0.011701000648101813 -0.006774166884941555 0.01410014649661798 -0.006774166884941555 -0.02571759480173664 0.0020860541017331544 0.01410014649661798 0.0020860541017331544 -0.019050852357773426" free_energy=-51618.710063263 pbc="T T T"
Cu       5.41031134       1.35397674       7.22582840      -0.34866886      -5.40960486       1.31111844       0.00088114      -1.68415536      -1.03724524      -0.27672963
Cu       0.01770207       1.16936141       1.58111558      -3.00946816       0.64559546       0.87857562       0.00073240      -0.56429698       1.52837736       1.84772920
Cu       1.98143254       7.06791486       2.07688611      -1.96109435       2.97738633      -3.51048325       0.00144262      -1.50490885      -1.02393515      -0.86167026
Cu       2.22460368       1.50998908       6.92106230      -4.27443042      -0.71864427       0.85914132       0.00136464      -1.42229056       2.07903978      -0.45252984
Cu       0.17750025       6.97213890       3.50529888       2.45439900       0.31643130       1.81815171       0.00049709      -1.46776258       0.20848870       0.05589373
Cu       0.20534261       1.85508331       5.16585334       7.44513334      -6.25836203      -2.46696180       0.00099672       0.49022298      -0.73711805      -0.79328123
Cu       2.03459041       7.11257592       5.03139021       0.29955340       0.70554176       3.58199714       0.00055827      -0.85767913       0.20632949       1.10888491
Cu       1.92426902       1.69550675       3.48313700       4.52416303       0.82306557      -1.83813884       0.00037687      -0.75011909       0.91277916       0.22228575
Cu       6.93309392       2.91390373       7.02390319      -2.87553047       2.04426207      -0.53134989       0.00452810       2.55645456      -0.93024029       1.68721652
Cu       0.47968674       5.33332695       1.08781833       4.62305210       3.64133864       0.73227844       0.00203523       0.68825218      -0.02052460       1.13115658
Cu       1.79842837       3.18582334       1.34820650       3.64895974      -7.55917973       0.01598941       0.00050974      -1.00625624      -0.23580307       0.50742315
Cu       0.37135276       0.14539764       6.94720237      -1.50691967      -2.11790753      -3.33032303       0.00182790      -0.68570164      -1.64801156      -1.54441770
Cu       0.06052584       3.54466217       3.12540336      -5.02317024       2.59508119       0.29130684       0.00084776       0.13618002      -0.28210992       0.37170336
Cu       0.17971383       5.42103562       5.30102019       1.21760596       0.34231035       3.14357774       0.00184320       1.05498790      -0.16564486      -0.90184349
Cu       2.07217546       3.67138619       5.45205207       2.40118485      -1.59021984       4.27405038       0.00119417      -2.19093033      -1.21833472       0.50626487
Cu       1.79910738       5.12831150       3.64679263       0.97243367       3.46023577       4.23825092       0.00081862      -0.29008909       0.35927721      -0.92308337
Cu       2.88503641       6.75254262       7.22601506       2.57676187      -2.61453008       0.12069144       0.00225262       1.38664607      -1.96997050       0.31201365
Cu       3.46666416       1.44100627       1.76709731      -1.40602600       1.18028684       2.37610626       0.00050323       2.05835654       0.69854867      -0.47228337
Cu       5.17327350       6.51911998       1.42968735      -0.37850621      -2.92153876      -3.55836885       0.00204823       0.26169922       0.53326505      -0.49534231
Cu       5.21691765       3.14499366       1.99982800       3.43898446       2.18688604      -2.41578278       0.00069911       0.08944919       0.44934039      -1.72869304
Cu       3.66401895       6.79281067       3.54143340       1.55094007       1.24747883      -5.16607544       0.00053254       1.69104463       0.37701088      -0.34234161
Cu       3.76039692       1.73708652       5.13389095      -0.12385813      -0.07908833      -3.63489529       0.00046756      -1.11264464      -2.21212368       0.40445664
Cu       5.45881337       6.82706540       5.17972832      -3.01537007       2.20693771       2.92507150       0.00076052       0.31506401       0.73203755       0.60465250
Cu       5.60924854       1.69787656       3.74777128      -1.96287623      -1.76760102       0.44766025       0.00095879       0.24069202      -1.49667695      -1.30343515
Cu       3.66333417       3.29665955       7.07403245      -3.74307164       2.23934414      -2.52203924       0.00057614       1.38455345       0.54267734       1.26258572
Cu       3.15926846       4.99294257       1.67594262      -1.74785797      -2.23474665      -6.18078380       0.00074661       1.16634367       0.29160938      -0.32749786
Cu       5.38601147       5.16165351       3.32766793      -2.23263732      -1.30917370       0.38177238       0.00106814       0.64772234      -0.26333110       0.60837366
Cu       6.11650398       4.78933214       6.85151284       3.34766069       2.84991917      -0.11838008       0.01014388      -3.88404342       2.87594369       1.35649706
Cu       3.51542263       3.57756702       3.65206754      -4.09771777       1.45694823       0.73243007       0.00039267       0.31679076      -0.37334063      -1.37889677
Cu       3.65773632       5.27222377       5.58802835      -2.01429226      -0.09001590       4.40893189       0.00129333       0.78453562       0.42733534      -0.35836087
Cu       5.18708557       3.37762923       5.25265207       1.22066357       3.75156332       2.73648053       0.00065412       2.15188325       1.39235032       0.17326896
31
Lattice="7.118425808072373 0.0 0.0 0.0 7.118425808072373 0.0 0.0 0.0 7.118425808072373" Properties=species:S:1:pos:R:3:momenta:R:3:c_unc:R:1:forces:R:3 step=10.0 target_atoms="5 8 17 14 11 30 26 6 16 7 13 12 19 28 24 20 2 0 29 4 9 1 21 18 10 22 27 3 23 25 15" energy=-51623.06160178244 stress="-0.031872923454033766 -0.007942063371475258 0.0028444522918879014 -0.007942063371475258 -0.03160941221847152 0.004665158842828415 0.0028444522918879014 0.004665158842828415 -0.026152801511341184" free_energy=-51623.06160178244 pbc="T T T"
Cu       7.06782542       0.02655278       0.03079342       0.38649418       3.01790166       0.29768700       0.03300538       0.13729459      -0.52081397      -0.63020747
Cu       0.06246185       1.92818426       1.75424472       1.62645147       0.36394314      -1.54904278       0.04305462      -1.41431731      -0.63383606       1.81603598
Cu       1.77741255       0.12458080       1.78883516      -1.64074765       3.40395325       1.51440726       0.03187336       0.09554734      -0.77313098       0.35026704
Cu       1.38313455       1.80991173       0.05029414      -4.95666514      -1.32943253      -0.46224119       0.04986300       3.60237881      -0.38280744      -1.38383971
Cu       6.93084071       6.92437023       3.65773133      -1.66173400      -6.20714556       3.37059172       0.03732691       0.65487206       0.53108347      -0.57925206
Cu       7.07082870       1.79958234       5.33465780       1.07152092      -1.20708858      -3.30027519       0.01220598       0.21152106       0.23120439      -0.43482111
Cu       1.86250841       0.12554815       5.18778151       0.95726411       5.07294764      -3.67509641       0.02370249      -0.91962806      -0.91006742       0.60544569
Cu       1.61353706       1.96133890       3.46100824      -1.48604611       1.21068396      -1.41630861       0.02396175       0.88473768      -0.81996439       0.79736414
Cu       7.08286274       3.56539481       0.09853115      -0.36692601      -0.89494349       0.38500879       0.01440266      -0.34629906       1.07972706      -0.61293248
Cu       7.09089627       5.44630585       1.75203263       1.21112295       2.18214936       2.55284615       0.03865223       0.23846365      -0.43866774       1.33595394
Cu       1.94352249       3.64711463       1.67484625       1.10745111       0.11637198      -0.59095234       0.04613504      -3.22616368      -3.14547475       0.48222582
Cu       1.67461347       5.35458301       0.14545793      -4.33735936       4.00064224       3.74552284       0.01897629       0.26234560       0.86503095      -1.92953322
Cu       7.05335195       3.55943292       3.60891738      -1.66171515       0.98694088      -0.95462500       0.02539167      -0.04519228       0.73747492      -0.61034852
Cu       7.06827020       5.17060989       5.28259703      -2.03353428      -1.95773963      -0.24972630       0.02483848       0.92701304       1.43104182       0.62638244
Cu       1.96596206       3.58386565       5.47213574       3.92772642       0.61616358       1.08436739       0.01747503      -1.95485164      -0.21607731       0.16052528
Cu       1.87753806       5.14654448       3.53715749       1.54131997      -1.38686428      -3.21782751       0.06997694      -1.37403224       1.07760384       0.55569021
Cu       3.68009269       0.00169106       7.02058843       1.63500349      -0.98607468      -2.19741418       0.02384601      -1.14650426      -0.02620006       0.29362512
Cu       3.49147133       1.82632400       1.85820187      -1.42684068      -1.75281545       2.30685639       0.01599651       0.15231935      -0.28361042      -0.36476883
Cu       5.22616573       0.06106498       1.78283465      -1.68275895       2.85903454       1.80871562       0.04599453       0.19339889      -0.97061947       0.73459451
Cu       5.40752201       1.71724350       0.20693105       0.43543434      -1.03822620       3.31659489       0.02554251      -0.69141103       1.11901352      -1.18404726
Cu       3.60228748       6.87096136       3.60084768      -0.68045334      -4.32395535       1.95265777       0.03005357       0.22878884       0.68261503      -0.72195445
Cu       3.46479680       1.82747765       5.16741668      -1.41841015       1.25078254      -2.92733279       0.04349267       0.71889124      -0.86458975       1.20998583
Cu       5.29644092       0.27968878       5.28524743      -0.08909032       3.80893091      -1.81036476       0.04704860      -0.14803718      -1.21989152       0.39426530
Cu       5.36737861       1.85737275       3.41123497       2.79588444       4.35309892      -0.96106111       0.05908382      -0.11851269      -0.41151226       0.70614063
Cu       3.69680333       3.60571518       0.01131678       4.56598907      -2.47296256      -1.36630238       0.02715889      -0.06596525      -0.92130185      -0.53558316
Cu       3.35835933       5.10479969       1.71875955      -3.27668707      -6.71753741      -2.08288232       0.06751080       3.56979059       4.03707316       0.70671013
Cu       5.28767578       3.66826005       1.81965783      -0.34904287       1.08155085      -0.47263710       0.02222020       0.28685027      -0.04835474       0.37439067
Cu       5.47652640       5.41035959       0.10252148       3.97324603      -0.56951869       0.85454462       0.04795313      -1.21830849      -0.12326563      -0.93664028
Cu       3.56577506       3.51813916       3.72109231       1.48547050      -1.20024864       0.71966695       0.02590328       0.81922572       0.53044249      -1.65203123
Cu       3.59296758       5.22089761       5.32643371      -1.29580783      -1.17085230      -0.68496078       0.03697060       0.48397443       1.44910562       0.71154174
Cu       5.41290827       3.62885815       5.43044302       1.64343991      -1.10969011       4.00958337       0.02198483      -0.79819049      -1.06123003      -0.28518445
32
Lattice="7.4816722256042425 0.0 0.0 0.0 7.4816722256042425 0.0 0.0 0.0 7.4816722256042425" Properties=species:S:1:pos:R:3:momenta:R:3:c_unc:R:1:forces:R:3 step=95620.0 target_atoms="10 8 3 1 5 9 17 0 19 26 12 18 23 24 25 30 7 21 27 4 2 6 15 28 22 13 20 14 31 16 11 29" energy=-53283.33916298253 stress="0.028073587242338438 -0.0011678964865337025 -0.0103834444702906 -0.0011678964865337025 0.02211933510776999 0.007488493509566728 -0.0103834444702906 0.007488493509566728 0.03790521898589416" free_energy=-53283.33916298253 pbc="T T T"
Cu       7.46534525       7.35811646       7.39532610       1.22574155       4.17538422      -4.19379339       0.00060599      -1.47184112      -0.37743769      -1.88436074
Cu       7.19753626       1.61845625       1.67478469      -1.25500864       1.72748021       3.23849972       0.00046303       0.53253717       0.60698192       0.70521632
Cu       1.53149815       7.13933489       1.39536904      -1.60145395      -4.70776083       2.37525522       0.00178070      -0.17203071       0.18911852       1.35914067
Cu       1.60026759       1.66169245       7.40355926      -0.48173449      -5.81571691       1.30822961       0.00045803       0.64365536      -0.04520719       0.40243678
Cu       7.17582833       7.22983198       3.41647038      -4.62862748      -2.41689793       0.93576228       0.00164513       1.17899632       2.63718617      -0.26814292
Cu       7.34561946       1.68405512       5.61324665      -1.93939606      -0.67103038      -1.71262201       0.00048386      -1.48831006      -1.12194946      -0.69632364
Cu       1.50516538       7.46036069       4.98945897       6.78493654       1.29512060       0.24722803       0.00178231       0.29128131      -0.11666329       2.60486200
Cu       1.45431424       1.68990343       3.49660630       3.39172741      -1.60120423      -0.12586885       0.00140048      -0.50128027       0.64854637      -0.51019428
Cu       6.97617862       3.48237365       7.21169142       0.46372345       0.41803652       1.52910908       0.00045765      -1.02876368      -0.80391814       2.06977841
Cu       0.00357633       5.36154355       1.59069129       0.27420894      -1.81827531       0.49916294       0.00051825      -1.14528968      -0.05425850      -0.28546161
Cu       1.42771488       3.57199965       1.83002432      -5.21262717       3.26534924      -0.18958933       0.00041123       0.82128157      -0.52479764      -0.50155718
Cu       1.79718379       5.49055868       7.16017086      -3.20411636      -2.02702671      -2.91313575       0.00378404       0.21346224      -0.53317789      -0.11540859
Cu       7.34537810       3.36437805       3.62864890       1.87282813       4.62846510       2.40065195       0.00084250      -0.19520715      -0.59502706       0.12368189
Cu       7.31689508       5.19315334       5.85544940       3.52254637      -3.30780769       0.68140000       0.00225730       0.59489465       1.56223725      -1.14061978
Cu       1.27157922       3.33657368       5.86553701       0.24263940      -1.21554249      -0.79930346       0.00240000       2.58062421       1.36095484      -1.22178719
Cu       1.37353973       5.60791340       3.70334873       0.61131914       1.27362654       0.70213729       0.00198701       0.50100285      -1.90489382      -0.56959577
Cu       3.38066876       7.32289686       0.12871821       1.36148235       1.65053020       1.89893604       0.00330995       1.47093892       0.16789895      -0.45384085
Cu       3.39073137       1.99303655       1.73289680       3.27540900       1.42033870       0.65503020       0.00051919       0.28093030       0.02155587      -0.04468140
Cu       5.61863770       7.16374655       1.74012743       5.68290927       4.11211717      -4.19090955       0.00093277      -1.17641699      -0.46724838       0.30462636
Cu       5.52195545       1.37484560       0.13382657      -2.01061046       2.41687266       0.43563723       0.00064133      -0.60740872       0.57301431      -0.63154058
Cu       2.86403145       7.47508726       3.08086682      -2.06930401      -2.84645701       3.29231152       0.00237769       2.68956931      -0.54712098       0.67165288
Cu       3.99117661       1.57398475       5.90759991       0.99349151       3.26309300      -3.26274057       0.00141184      -0.99635467      -0.36958400      -0.80856926
Cu       5.68862090       7.39710058       5.30504476      -1.63307577      -0.32232800      -1.52872853       0.00208154      -0.20584612      -0.91793422       0.72623354
Cu       5.33741478       1.56417332       3.64537389       0.19553121      -3.81261634      -1.29711898       0.00097300      -0.16534379       0.37453491      -0.68504370
Cu       3.78894851       3.58532307       7.16632701       4.92526046       2.99812261      -4.91764267       0.00110738      -0.44563748       0.34485230       0.20592145
Cu       3.36433444       5.19295095       1.61076137      -7.84160321       0.50470251      -0.72249729       0.00114795       0.10320100       0.31745334       0.19888974
Cu       5.36282541       3.67961037       1.60556976       0.29554524       1.15822835       3.73811772       0.00082546       0.30727048      -0.10074096       0.53332393
Cu       5.61185114       5.74646066       7.26929343       0.91047792       0.27141397      -1.78544724       0.00144868      -1.31015164      -0.49150314       0.49230301
Cu       3.10904230       3.16734173       4.26226911      -1.61057675       4.05689206      -0.66801941       0.00199054       0.14947314       0.15655344      -0.59932338
Cu       3.85741693       5.44960812       4.08329592      -3.78753422       1.86811606      -0.89098448       0.01104184       0.27003859       0.20271426       0.20628526
Cu       5.29107446       3.53892475       5.16006219      -5.02757043      -5.06494725       1.24067854       0.00126428       0.57911245       0.26345991       0.39889046
Cu       6.32629811       5.31561942       3.81813220       6.27346110      -4.87627863       4.02025412       0.00289187      -2.29838805      -0.45559974      -0.58679156
32
Lattice="7.114 0.0 0.0 0.0 7.114 0.0 0.0 0.0 7.114" Properties=species:S:1:pos:R:3:momenta:R:3:forces:R:3 target_atoms="0 2 6 8 12 14 18 20 24 26 30" energy=-53290.89047262023 stress="-0.03184262425273219 -0.00021943967003266895 -0.00505721214451858 -0.00021943967003266895 -0.0316461385230795 -0.0022715219400034434 -0.00505721214451858 -0.0022715219400034434 -0.03245228090922462" free_energy=-53290.89047262023 pbc="T T T"
Cu       0.00264104      -0.11783003       0.04170162       6.32599502      -0.89010551      -0.62327873       0.05437498       0.17077216      -0.28388090
Cu      -0.02448030       1.72547303       1.82814054       0.69014416       0.68803806       0.70960606       0.11475810       0.48687515      -0.67547842
Cu       1.67584054       0.12345769       1.77041484      -1.12665409       4.32344957       3.48942820       0.61400463      -1.72673000       0.09055837
Cu       1.87746577       1.71844629       0.14271962      -1.35730030      -2.72611940      -1.86021696      -2.03405216       1.02224002      -2.51407095
Cu      -0.11401850      -0.09755178       3.51988404      -0.13709166      -2.64347986       4.04078869       0.33365103       0.90422536       0.89673085
Cu      -0.10226358       1.63664595       5.47379811       1.84435293       1.46860144       0.53362469       0.90845431       0.22695205      -0.75591718
Cu       1.77306236      -0.12733843       5.25524970      -1.75869398       5.42663519      -7.76442580      -0.03865911       0.60918099       1.02540248
Cu       1.84716337       1.63701155       3.50133844       4.52937337      -1.27154893       1.01039537      -1.06163755       1.39733235       0.62382625
Cu      -0.08892913       3.44962456      -0.03764820      -1.29544862       5.15933873      -0.49629308       0.50127076       0.40399333       0.04742708
Cu       0.06567422       5.36762504       1.88250149       0.62231856      -0.64306738       6.29536562      -1.75055487      -0.35291810      -1.38126218
Cu       1.68987232       3.70319960       1.80156886       0.57702991      -2.19575806       1.48806692       0.42937217      -1.94079542       0.48048390
Cu       1.91335563       5.22611651       0.14600655      -4.22027626       1.22983645       1.27950491      -1.05674345       1.29737814      -1.52814339
Cu      -0.08846537       3.48093024       3.49254248       1.77291817      -2.01640684       4.98939870       0.56489348       0.51999173       0.90258628
Cu       0.00375050       5.31417412       5.40093883      -7.72188720      -2.84420437      -1.53554113      -0.14007216      -0.50341531      -0.21337148
Cu       1.87249490       3.52248146       5.23413580       1.17918257      -5.53496867      -2.45700509      -1.46864626      -0.13045006       0.61044237
Cu       1.65584767       5.38163018       3.49243492       6.18869046       2.67777869      -4.35522653       0.96169877      -0.53467196       0.90023243
Cu       3.54628451       0.07925578       0.09058632       3.36362040      -0.63621354       0.76017949      -0.65153760      -1.53532037      -0.59359650
Cu       3.43203781       1.86504275       1.64003302       4.96523008       3.67260264      -1.75436244       1.61224032       0.23019858       2.30673822
Cu       5.34274335       0.08313111       1.69817113      -8.28826751      -2.79895671       1.51450196      -0.44970266      -0.79409524       0.61418667
Cu       5.18615461       1.69756545      -0.06520845      -0.12886513       4.31657800       0.44148512       0.83784333       0.96749481       0.34705368
Cu       3.44922380      -0.03519346       3.51326616       0.55881310       0.82147393       2.57350134       0.90898447       0.16939019      -0.15766596
Cu       3.55486628       1.82196819       5.20554836       2.19133232       6.23713992      -0.37849311      -0.57944952      -1.58232759       1.17074231
Cu       5.18607662      -0.04084736       5.44700294      -5.58562394      -1.80558302       1.31982048       0.48964423       0.09165520      -0.64939227
Cu       5.41921337       1.74700499       3.56346401      -6.01320421       4.09330310      -3.64893818      -0.85290691      -0.67578850      -0.13229791
Cu       3.57317532       3.61864749      -0.00080049       7.49144387      -4.37737292       1.98578363      -0.15137370      -0.86427556      -0.14338194
Cu       3.54687748       5.30047353       1.85455555      -0.06125006       2.81035371      -0.34723837       0.55597792       0.11933441       0.12671091
Cu       5.35526667       3.44658241       1.73474614      -0.97495300      -4.80655402      -2.77426912      -0.35913426       0.65676002       0.21486632
Cu       5.21971968       5.27700818      -0.06124794      -3.10620467       0.02186197       1.55141978       0.76405318       0.21981981       0.60812606
Cu       3.66340047       3.50514617       3.70096502      -1.88745107      -5.08886421      -2.70757375      -1.07027106       0.36412683      -3.09487878
Cu       3.55241268       5.23148352       5.24595071      -1.34677742      -3.21617348      -2.52685846      -0.85741431       1.00895976       0.96933160
Cu       5.22462375       3.44620187       5.25359449       0.82944238      -0.07108848       1.20741127       2.02129666       0.70375927       1.35043774
Cu       5.22852592       5.46786455       3.69026928       1.88006182       0.61947401      -1.96056147       0.84963749      -0.92965228      -1.16254538
31
Lattice="7.181988832630077 0.0 0.0 0.0 7.181988832630077 0.0 0.0 0.0 7.181988832630077" Properties=species:S:1:pos:R:3:momenta:R:3:c_unc:R:1:forces:R:3 step=360.0 target_atoms="21 1 6 16 7 5 8 0 14 24 17 19 2 3 23 30 4 29 12 28 27 22 11 15 10 9 26 20 13 18 25" energy=-51621.640586853726 stress="-0.0013809090532599752 0.007551846385015489 0.012531933289857316 0.007551846385015489 -0.033602732401069535 -0.00765376188030263 0.012531933289857316 -0.00765376188030263 -0.01411850964892197" free_energy=-51621.640586853726 pbc="T T T"
Cu       6.98396743       0.04573654       0.03067804       4.11991535      -1.64340005       4.25031098       0.00041146       1.04495957      -0.65087708      -1.44253774
Cu       7.14530304       1.73355527       1.52831271      -3.63748180      -1.45625340       4.00400714       0.00028738      -0.03057247       1.13948361       1.74135675
Cu       1.83559110       0.20726069       1.65382847       5.72946198      -0.23072345      -0.02523854       0.00054622      -0.41348815      -1.41392959       0.18545727
Cu       1.80571739       2.06821520       0.07080567       1.33938838       3.00813517       1.88742652       0.00060733       0.80842297      -0.96976740      -0.21561554
Cu       6.96683572       7.05263281       3.56844415      -4.05571264      -2.90096159      -4.98140560       0.00074038       0.45600931       1.22818975      -0.30060027
Cu       7.15154024       1.77594027       5.46213701      -1.25149787       1.03508293      -0.92098998       0.00039247      -0.48164218      -0.80790643      -0.92754166
Cu       1.69307066       7.05833662       5.15740685      -2.40533378      -6.48028858      -2.28805425       0.00033542      -0.11244385       0.85870398       0.99729878
Cu       1.87974897       1.79508571       3.39022813       2.49936468       1.04571008       1.93871011       0.00036150      -0.88337268      -0.10535147       0.62251755
Cu       7.10924542       3.47520625       7.05948461      -3.67593205       3.16167603       4.08394797       0.00040048      -0.17351758       1.51501148       0.39734085
Cu       7.17857940       5.49810005       1.79593735       4.64494917       1.27530663      -2.56901685       0.00121558      -1.11276985       0.34811811       0.09967884
Cu       1.43884308       3.79181831       1.87717145      -1.28755108      -2.03681528       0.81329606       0.00120218       1.26966293      -1.63336399      -0.01225542
Cu       1.74659473       5.42396908       0.15764839      -2.88176783      -4.09676426      -2.72250783       0.00104896      -0.12247424      -0.19936025      -0.99371157
Cu       6.89573097       3.70563901       3.71318812       4.77110132       3.41298475      -4.21603920       0.00082891       0.26864866      -1.01229602      -1.03706037
Cu       6.86188362       5.42589503       5.13310674       1.58682444       1.77049011       6.34527961       0.00172523       0.69110147      -0.12021784       1.86384230
Cu       1.73865809       3.37357669       5.28576738      -0.17730393       2.31525121      -1.32339375       0.00041148      -0.13624121       0.95562994       0.14396686
Cu       1.78309591       5.31547063       3.64966590      -4.25047586       2.38889760       0.91944891       0.00105281      -0.37325939      -0.25403759      -0.88095867
Cu       3.54430514       6.98849465       7.02753126      -4.65244601       0.72838470       1.77734761       0.00033724      -0.86846106       0.55806128       1.24752162
Cu       3.66171974       1.66224297       1.76205586      -1.12695026       2.55605623       0.53920614       0.00043817      -1.26312076       1.43200599       0.12065621
Cu       5.36876434       0.22037897       1.78060312       1.87800949      -1.25007245      -8.89554377       0.00205600       1.19445380      -0.04544965      -0.50368837
Cu       5.12474562       1.73207024       7.15006832      -2.77781446       1.87737925       0.60339393       0.00047346       1.01879063       0.15971847      -0.52190720
Cu       3.67696133       6.97551431       3.47954376       3.74424505       2.03738476      -2.38761751       0.00140942      -1.07746192       1.09477187       0.58810257
Cu       3.61836266       1.56241616       5.36434859       1.60654362       0.61928265       2.80979930       0.00026388      -1.24800396       0.67774434      -0.22715542
Cu       5.11779062       7.00962988       5.35367634       1.19889867      -1.38085211       2.90774692       0.00092809       1.72026650       0.38393975      -0.47904434
Cu       5.35379619       1.77935797       3.49170197      -2.94817391      -3.94816003      -0.66471718       0.00065094       0.49505820       0.14280704       1.01230682
Cu       3.63652248       3.73167613       7.12043318      -0.25834652      -1.96583255       0.43677306       0.00043258      -1.54107373      -0.14199483       1.16054043
Cu       4.50970820       5.47023945       2.06423517      -3.66650787       3.02504467      -0.12789202       0.01144851      -2.56732801      -0.81729250       1.62463715
Cu       5.27973053       3.54555852       1.69297254      -3.13310205      -2.20091723      -0.34393043       0.00135617       1.46155696      -2.19403751       0.05598603
Cu       5.38436541       5.48574179       0.05967563      -1.61000134       4.44877387      -0.62584185       0.00086139       0.73005009      -0.80557367      -1.56147492
Cu       3.62941314       3.37760036       3.87968618       0.66494613      -0.29797492       2.08523585       0.00083733       0.05150897       0.99613587      -1.74917393
Cu       3.44197601       5.30817134       5.30862633       1.53796000      -2.85032199      -1.19864856       0.00078119       0.16680032      -0.17658131       0.26710779
Cu       5.24347595       3.58485593       5.59032956       8.47479098      -1.96650275      -2.11109280       0.00072803       1.02794144      -0.14228485      -1.27559241
31
Lattice="7.140322302683092 0.0 0.0 0.0 7.140322302683092 0.0 0.0 0.0 7.140322302683092" Properties=species:S:1:pos:R:3:momenta:R:3:c_unc:R:1:forces:R:3 step=30.0 target_atoms="5 21 3 16 6 17 1 27 8 23 10 14 30 22 7 24 2 13 19 0 20 29 28 9 12 4 15 26 11 25 18" energy=-51622.753468234965 stress="-0.030052216903093253 0.01076447988059837 0.0049369334969274516 0.01076447988059837 -0.00922656587513929 0.009389997930644793 0.0049369334969274516 0.009389997930644793 -0.015929116466095287" free_energy=-51622.753468234965 pbc="T T T"
Cu       7.01479548       0.09706997       7.08800150      -2.47048136       0.50166422      -1.70234023       0.00634502      -0.27606886       0.51085609      -0.01030138