165
Lattice="28.8275614306564 0.0 0.0 0.0 30.0305777729276 0.0 0.0 0.0 50.503860551223895" Properties=species:S:1:pos:R:3 timestep=0 pbc="F F F"
H       14.29659668      14.96606877      14.50950662
H       16.36154373      14.95042284      13.11474150
H       16.37650524      15.09123622      15.68281231
H       12.21314233      15.14559156      13.09358038
H       12.31184790      14.94693929      15.85099016
H       13.14015022      17.02295313      14.14118196
H       15.48063111      17.03112145      14.47061864
H       13.24508255      12.89627126      14.19198885
H       15.68798776      12.95477082      14.49046666
H       14.47129170      13.83364571      16.65839538
H       14.07491273      16.35495296      16.55865026
H       14.50205071      13.59820598      12.06511977
H       14.31925514      16.11645011      12.30425555
H       18.34147831      15.07544013      11.84507445
H       18.52952049      15.27574409      14.41738758
H       18.42957533      14.98321623      17.01369004
H       10.27956248      14.67330067      11.98587921
H       10.32340920      14.71462274      14.45213423
H       10.42995586      14.82441453      17.01808387
H       11.92780713      19.12260104      14.25032080
H       14.41732651      19.30713894      14.01310417
H       16.80566114      19.13209070      14.26653254
H       12.09128823      10.79674347      14.49425445
H       14.53820047      10.94590535      14.54920265
H       17.08949731      11.20582000      14.55602067
H       14.44416497      12.69113238      19.03682419
H       14.52361372      15.41667759      18.91718054
H       14.40556486      17.86407959      18.70410476
H       14.50130119      12.31950398       9.91198868
H       14.63312963      14.90937104      10.27420237
H       14.49579513      17.29773292      10.09026731
H       16.41291445      14.16197002      18.27270078
H       16.52493835      16.57261459      17.79771197
H       16.61058503      13.62487314      11.05191132
H       16.58971388      16.16876338      10.65717314
H       12.48069093      13.62250072      18.08992731
H       12.21109557      16.46099093      18.07937200
H       12.33485230      13.31408669      11.08297119
H       12.25819981      15.87485411      10.64803194
H       17.73180421      17.15292547      12.89414064
H       17.89623662      17.31058601      15.59705675
H       10.87387148      17.19508840      12.80277915
H       11.01852819      17.06625723      15.46226195
H       17.83174936      12.96185804      13.00257243
H       17.80073091      12.97870519      16.02098616
H       10.99759938      12.66710792      13.29039393
H       11.19875810      12.63863893      15.86492923
H       13.15159477      18.39520038      16.35759439
H       15.62716160      18.34841274      16.64102205
H       13.27238225      11.53165177      16.59066970
H       15.76040259      11.98196029      16.73591881
H       13.00079779      18.22594805      11.76835908
H       15.58121047      18.20282450      12.09345243
H       13.37371113      11.31987614      12.13011823
H       15.82742667      11.57693788      12.33248720
H       14.48469652      15.03697096      25.19647704
H       15.82298723      14.39059281      23.16410068
H       14.17797126      12.85110527      24.36765818
H       14.75827007      17.28698197      26.39579221
H       13.09976281      15.53890204      27.04961519
H       15.46001940      15.32718647      27.92903892
H       16.36555076      13.76340419      26.02519488
H       12.62993121      16.53360487      24.75391171
H       13.27791714      14.85195257      22.83537105
H       12.20296620      14.02412967      25.44121874
H       14.23626059      13.40730160      27.16456198
H       14.74307795      16.67243623      23.39505483
H       16.65192376      16.10593941      25.16789185
H       17.56232697      13.51324948      21.58055213
H       15.78571319      11.91901620      22.65103196
H       14.20313772      10.45193238      23.74141031
H       14.67518904      19.58429114      26.59093913
H       13.08563731      18.11330335      28.11590320
H       11.52597975      16.16389843      29.30521861
H       16.47299108      15.65121640      30.37024402
H       17.37751348      14.14773553      28.24605165
H       18.40100722      12.35818337      26.41917550
H       10.57951325      17.90170790      24.40533406
H       11.30161484      16.30891609      22.52265115
H       12.77398254      14.25869851      20.40254959
H       10.18134697      12.91110636      25.27102073
H       12.19512510      12.33421896      27.10163417
H       13.66570550      11.62390571      28.93219710
H       14.90560774      18.51841584      21.75979033
H       16.90223347      17.76107470      23.21182683
H       18.65800493      17.17953257      24.94259413
H       12.16920913      11.63453653      24.69083238
H       14.22418184      11.09344558      26.18746379
H       15.82829150      15.70373988      20.83360004
H       17.88914504      15.52863158      23.14470720
H       10.69753329      14.51119561      27.20451053
H       12.77349247      13.99968478      29.06219403
H       14.75403242      19.04229927      24.16443065
H       16.59155884      18.55685498      25.69560669
H       17.81595186      13.27982180      24.06438250
H       16.32450031      11.42047857      25.07521727
H       15.55814842      17.80639085      28.47397557
H       13.93409009      16.18774270      29.43708419
H       14.88323755      13.56012721      21.10238158
H       13.20132231      12.17274455      22.07271225
H       12.66942497      18.67553583      25.65555713
H       11.14378394      16.98277222      26.69932042
H       15.34277771      13.45201713      29.51097134
H       16.05787420      11.84141718      28.01908730
H       10.37999770      15.46379557      24.82037479
H       11.13565457      13.59907687      23.08905194
H       17.44009811      16.67036412      27.60394557
H       18.59833188      14.77228145      25.99201385
H       12.76343165      18.19684842      22.95673183
H       13.44093700      16.68408809      21.30212435
H       14.52981165      15.11472013      36.01748470
H       15.08632772      13.99202698      33.85829315
H       16.44609497      13.73112132      36.02026241
H       12.36140248      16.31239963      36.08010949
H       13.76821630      16.22903475      38.16384827
H       14.47403032      17.46416238      35.96738487
H       16.36970193      15.82542378      34.65276938
H       12.57521650      14.08175835      37.27462680
H       14.15903155      12.62449453      36.20450050
H       15.03541825      13.95208631      38.10657689
H       16.17304031      16.01008181      37.47669275
H       12.51580290      14.19001858      34.54494364
H       13.74884418      16.03876101      33.76112372
H       15.83601729      12.62575581      31.75142360
H       17.15262967      12.47323051      34.15066000
H       18.26620954      12.54878744      36.39070823
H       10.10910510      17.53317265      36.35717367
H       11.65354171      17.37734398      38.17536315
H       13.37742988      17.17136425      40.22733501
H       14.70467964      19.84828995      36.13470416
H       16.39138026      18.35655103      34.65484004
H       18.17632521      16.59264498      33.41289961
H       10.97791015      12.91495028      38.47116426
H       12.16560568      11.58219324      37.11690324
H       13.93512789      10.29796561      35.99157622
H       15.48567593      12.72197378      40.19405296
H       16.74033789      14.85426493      39.69027695
H       18.03728988      16.86240966      38.63242309
H       10.58487518      13.41543989      33.41810150
H       12.09428630      15.12081634      32.18959510
H       13.26742391      17.12379581      31.52051995
H       16.98433437      12.75599843      38.38005530
H       18.20189525      14.70804605      37.56568055
H       13.17497392      12.70611764      32.45807362
H       14.37287441      14.86054132      31.63208298
H       14.41086913      15.06360809      40.42712828
H       15.81998916      17.25493935      39.56421932
H       10.31908506      15.33934885      34.93372236
H       11.62194670      17.23469874      33.96758351
H       16.91226546      14.77204121      32.38908534
H       18.55471578      14.77459381      34.95619658
H       12.34260691      18.91821293      36.29161966
H       13.95236677      18.54277064      38.07344636
H       14.84576172      11.46921820      33.78385046
H       16.25032700      11.35432121      36.25919618
H       10.39115397      15.21970703      37.37831122
H       11.99866527      15.11231768      39.60154167
H       16.59248133      18.48964655      37.20260829
H       18.10218072      17.00328310      35.91768907
H       13.19521087      12.98762428      39.42745486
H       14.78078440      11.38813564      38.34955097
H       13.81612771      18.56877712      34.01288547
H       15.60242756      16.97391320      32.28105759
H       10.57282526      13.14132077      35.94006228
H       12.42346822      11.75099511      34.63913334
165
Lattice="28.8275614306564 0.0 0.0 0.0 30.0305777729276 0.0 0.0 0.0 50.503860551223895" Properties=species:S:1:pos:R:3 timestep=1000 pbc="F F F"
H       14.13429751      15.08520007      16.66304173
H       16.59060753      15.18024685      15.74306341
H       15.87337781      14.97820112      18.07881646
H       12.35188938      15.17150795      15.11282574
H       11.86761518      15.05979420      17.41085240
H       12.81661850      17.10103264      16.56481173
H       15.35845990      17.18535850      17.07237552
H       12.97165313      13.07020836      16.49430834
H       15.51277384      12.95921535      16.38562403
H       13.94899394      13.48886465      18.71228638
H       13.83792135      16.05203452      18.87591889
H       14.46051019      14.15722519      14.38743879
H       14.69548365      16.56474658      14.87399298
H       18.72909370      15.17102746      14.77268223
H       18.49250590      14.55663187      17.10752621
H       17.79271685      14.55654178      19.58261941
H       10.91045366      15.54388712      13.07438892
H       10.08967533      15.25156947      15.48640279
H        9.82913183      14.92883085      18.59986479
H       11.81373647      19.25425509      16.07856056
H       14.15960811      19.10353162      16.61410349
H       16.72540521      18.86286657      17.75660183
H       11.71650110      11.03086186      15.38696069
H       14.08477176      10.82193913      16.00235023
H       16.78285854      10.99179208      16.56329661
H       13.73714019      11.79589083      20.41467051
H       15.45696368      14.50777212      20.73597607
H       12.79093314      17.73738058      20.68107838
H       15.03697494      12.86660105      12.31592194
H       15.03887756      15.53100400      12.57172399
H       14.99776945      17.92486148      13.05878322
H       16.36653090      12.20559800      20.48810313
H       15.95948573      16.88763535      19.68812197
H       16.72456921      14.07584232      13.28483850
H       17.05115666      16.44768739      13.86669348
H       11.66328542      13.18552578      19.10525692
H       11.74472329      15.78890660      19.86983486
H       12.89402050      14.14386158      12.43293938
H       12.90751180      16.50306377      13.02332951
H       17.73630131      17.32596166      16.08340893
H       17.71188436      16.59988235      18.25133765
H       11.00028034      17.34106704      14.70768377
H       10.26082456      16.99769742      17.17605995
H       17.68253791      12.98687351      15.36953686
H       17.12057342      12.76356613      18.23174215
H       11.22323270      13.28393599      14.33254109
H       10.59637738      13.24411544      16.58309412
H       11.91120245      18.11831846      18.40340477
H       14.59588442      18.59517400      19.01364292
H       12.65806691      11.30870476      18.10608854
H       15.00330435      11.31323938      18.37335497
H       13.27120032      18.46817469      14.47784070
H       16.21388896      18.54823621      14.97015233
H       13.31225077      11.99796658      13.90982378
H       15.68216459      11.62459641      14.38844886
H       14.73468913      15.20033731      25.28642441
H       16.03740663      14.62014654      23.35985364
H       14.44554869      12.91819358      24.61310694
H       14.60634883      17.71470749      25.74267629
H       13.37791995      15.91464463      27.09481615
H       15.62621029      15.43962095      27.41970748
H       16.37722592      13.59805583      26.03888143
H       12.79006832      16.47651674      24.61048074
H       13.49810205      14.68531290      23.17844378
H       12.43929455      14.17434262      25.62818404
H       14.08295562      13.76814902      27.55930015
H       15.07594980      16.83574251      23.60575694
H       16.85711834      16.10524871      24.98370427
H       17.74817826      13.84082302      21.83009171
H       16.63315701      11.07740925      22.65729444
H       14.58954236      10.60683010      23.90378022
H       14.64105721      19.90769043      26.19569592
H       12.73768864      18.37676161      27.58041077
H       11.78456298      16.66706076      29.04456819
H       16.93521220      16.26251884      29.43733671
H       17.64411077      14.40326571      27.96358356
H       18.39913343      12.46410121      26.33715723
H       10.81532270      17.69918168      23.80201494
H       11.61027154      16.01068242      22.17669970
H       12.63736872      13.85271513      21.12940115
H       10.47844382      13.02411143      25.62126501
H       12.08875140      12.22169439      27.06410980
H       14.19783345      11.66949213      28.78765505
H       15.27082412      18.25444707      21.65130804
H       17.20319321      17.77804198      23.11662705
H       18.98825347      17.45698507      24.93294789
H       12.25742147      11.79300789      24.70093316
H       14.28520979      11.24260746      26.28231004
H       17.39192726      16.16455910      21.26757971
H       18.60095519      15.70917542      23.38086325
H       11.62863470      14.52888362      27.87818153
H       11.62004408      12.42929577      29.24441196
H       15.00981938      19.26494598      23.97256648
H       16.86686206      18.64766745      25.23142571
H       17.37615858      12.79086393      24.09781605
H       16.53992868      10.99197226      25.38071512
H       15.68931383      17.83158650      27.88767625
H       14.45880937      16.12056430      29.19678682
H       14.83446132      12.87594056      22.12887255
H       12.62505936      11.70642974      22.28422242
H       12.60479358      18.78424652      25.22425416
H       11.25647088      16.71525983      26.28655236
H       15.80750683      13.82379568      29.29350172
H       16.15043950      12.00114983      27.72631642
H       10.66639952      15.37148157      24.53103817
H       11.44062134      13.57328060      23.29727936
H       17.80488208      16.79583187      26.88674024
H       18.51084023      14.78291228      25.55081212
H       12.99909697      18.31438810      22.91153087
H       14.05092820      16.09005323      21.46636290
H       14.37849578      14.93300510      33.79410275
H       15.33012241      13.71151135      31.94167164
H       16.54949943      13.55610311      34.20510316
H       12.28250144      16.12954344      33.61097575
H       13.67000080      16.02374572      35.81809546
H       14.65166575      17.43488257      33.70617552
H       16.24986576      16.00849019      32.52736492
H       12.62223426      14.12458195      35.11695036
H       14.37454640      12.50953748      34.05773290
H       14.78629046      13.79454590      36.05682721
H       16.08306949      16.11711078      35.09710235
H       12.76562255      13.85592840      32.52534476
H       13.83541335      15.70560178      31.61167942
H       16.18454250      11.88838501      30.46084795
H       17.43845494      12.42839486      32.40474154
H       18.54413606      12.76680944      34.56751887
H       10.21054929      17.32746319      33.50213993
H       11.66167108      17.46299119      35.77925799
H       12.96064100      17.26004454      37.94213632
H       14.63592590      19.83093228      34.00551191
H       16.56137639      18.62181112      32.78786383
H       18.14178979      16.75799335      31.57137734
H       10.60355544      13.26540712      36.34853751
H       12.37927557      11.73039414      35.42669054
H       13.86640298      10.05594918      34.14151880
H       15.10518095      13.16357343      38.38550972
H       16.31420888      14.98537843      37.20558802
H       17.63090774      17.09424572      36.64847994
H       10.94369184      12.69374504      31.66642560
H       11.33237385      14.67125859      30.24787317
H       13.64218221      18.32018400      29.69480539
H       17.07188367      12.83278662      36.43126283
H       18.09335948      15.03042430      35.49163851
H       13.18486177      11.44285135      31.08633826
H       13.60456224      13.73382407      29.95818302
H       14.09748471      15.24355131      38.26379541
H       15.25681392      17.38968655      36.95867465
H       10.53820336      15.25904709      32.49095163
H       12.17765560      17.34926539      31.46193547
H       17.53398948      14.32140236      30.79952684
H       18.32859239      14.94633868      33.22148997
H       12.22239598      18.58352214      33.56885553
H       13.55967773      18.59039914      35.73117832
H       15.16029925      11.19906312      32.35327811
H       16.46030696      11.31224837      34.41848197
H       10.44313006      15.18748422      34.99569060
H       11.68003424      15.31072971      37.16700307
H       16.12204435      18.83770095      35.27730012
H       17.89280614      17.22499886      34.06394487
H       12.90964504      13.14663618      37.38634134
H       14.85354516      11.43567405      36.34040639
H       13.97805212      18.93848357      31.95515617
H       15.65662337      17.74891232      30.61331910
H       10.63281541      13.11462359      33.82597068
H       12.35361904      11.49234175      33.05285758
165
Lattice="28.8275614306564 0.0 0.0 0.0 30.0305777729276 0.0 0.0 0.0 50.503860551223895" Properties=species:S:1:pos:R:3 timestep=2000 pbc="F F F"
H       13.90001592      14.77930861      17.42181174
H       16.02792236      14.99021335      16.29370700
H       15.92388369      14.66909639      18.83895006
H       11.93832919      15.25045834      16.34249373
H       11.84807009      14.56026557      18.71466006
H       12.72013265      16.80556178      17.90937601
H       15.09615792      16.95430323      17.80074220
H       12.56331072      12.88344820      17.05954754
H       15.19076998      12.90582098      17.34433881
H       13.86571112      13.08561405      19.46398584
H       14.09803243      15.84395265      19.63201219
H       14.16381693      13.79421556      15.33044687
H       14.16300976      16.45918910      15.58241063
H       18.11760346      15.17820477      15.12590624
H       17.94711726      15.03973378      17.44367991
H       18.17678645      14.93892113      19.75347397
H       10.13617418      15.14538135      14.70036071
H        9.63076938      14.71657473      17.36681303
H        9.53771401      14.43356656      19.64827443
H       11.26618577      18.75974157      17.61079718
H       13.82448770      18.82367667      18.35623416
H       16.56330783      19.04833542      18.09149293
H       11.63491910      10.93875808      16.64536538
H       14.05170654      10.79268935      16.85414834
H       16.60966255      10.96386364      16.93540905
H       13.34718977      11.02659752      21.40878850
H       15.77164534      15.08916411      21.25288309
H       13.98280867      19.44356785      20.73340038
H       14.11553076      12.68939061      13.19499213
H       14.30991501      15.26745565      13.30746423
H       13.92584541      17.97119866      13.92149017
H       16.32291480      12.79617934      20.39623660
H       17.50850592      18.67589619      20.94071872
H       16.36108249      13.89893219      13.82447225
H       16.24657942      16.34486269      14.33193504
H       11.61998643      12.78795096      20.23381619
H       11.11729141      15.99927080      20.71946131
H       12.14548404      14.03968551      14.11264728
H       11.91120245      16.51597692      14.20668547
H       17.28477521      17.17616914      16.38229077
H       17.39587664      16.99514482      19.06581340
H       10.51666917      17.15770034      15.98997679
H       10.60220054      16.56507691      18.61249075
H       17.08845952      13.02071797      15.94684649
H       17.68562246      12.59398346      18.43542422
H       10.55469272      12.94332917      15.73361919
H       10.31144576      12.56094983      18.19911665
H       12.18835063      18.08342293      19.99493293
H       15.42410026      17.85242772      20.06159802
H       12.58660339      11.04176296      18.73733630
H       14.99431015      11.05173311      19.09050979
H       12.89070533      18.39069580      16.06164176
H       15.36359121      18.44964582      15.98310826
H       12.78113177      11.82790342      14.91606269
H       15.32605772      11.72435799      15.01823200
H       15.16156766      15.32066983      25.18238646
H       16.84437656      14.50954393      23.48505271
H       15.04363411      12.75888136      24.43280816
H       15.30991429      17.36830478      26.39382256
H       13.39322739      15.76265988      26.65593760
H       16.37440082      15.55040375      27.17547081
H       16.94215965      13.59940721      25.78696817
H       13.47887407      16.85135841      24.50230147
H       14.10826622      14.93817036      23.13122267
H       13.01059916      14.03821401      25.04870274
H       14.69718447      13.61021821      26.80113620
H       15.60283114      16.73874374      23.33192501
H       17.45681810      16.34206984      24.81133460
H       18.29446055      13.94430839      21.66044924
H       16.82341892      12.15947103      22.69077850
H       15.00194945      10.66740178      23.29626928
H       16.10198037      20.01510981      26.86946792
H       14.50438574      18.79394640      28.32337306
H       11.73131847      15.84269137      28.43917841
H       17.39772160      15.85938837      29.44531632
H       18.14178979      14.10782489      27.98545173
H       18.72289577      12.17649837      26.49296164
H       11.74743308      18.27495795      24.81532440
H       11.57449653      17.56188188      22.60199271
H       12.84068952      14.50197622      21.17212741
H       10.86014956      13.17090089      24.91623111
H       12.84455241      11.83003559      26.41867046
H       14.25667051      11.65549788      28.35857425
H       15.77830451      18.76881080      22.23392058
H       17.76631080      18.14462524      23.41459983
H       19.57852662      17.18553868      24.94547285
H       12.96770375      11.64351568      24.21336889
H       15.02143688      11.02062143      26.00196311
H       17.68276853      16.39050916      21.72529620
H       19.26531517      15.60325757      23.44788187
H       11.41401350      13.88232528      27.26966051
H       11.58167460      11.86682305      28.51892401
H       15.77602713      19.09770569      24.65239895
H       17.77299879      18.48529212      25.94307561
H       18.75921850      13.23648767      24.11377527
H       17.25260365      11.40390170      24.85092962
H       16.70856992      17.80140577      28.22600162
H       14.77608551      16.26753395      28.86699661
H       14.36324600      12.84449854      21.95170500
H       11.73460481      12.97179816      22.77799867
H       13.66801170      19.20317308      25.92226802
H       12.34453836      17.82750234      27.27900373
H       15.78306106      13.89283598      28.87098642
H       16.64370790      11.90823522      27.48258479
H       11.22421284      16.02785991      25.74863574
H       11.81708046      15.43445569      23.41192312
H       18.71635191      16.71324778      27.24476211
H       19.11388399      15.06691145      25.77353415
H       13.62840263      19.00244870      23.46182094
H       13.66760812      16.99295259      21.76287107
H       14.18610064      14.92474669      32.82276200
H       14.76931103      13.10402279      30.87715127
H       16.40515983      13.60283069      32.70433044
H       11.98257949      15.75296000      32.76857135
H       13.50934480      16.33339101      34.75690834
H       13.68501996      17.47028862      32.02187177
H       15.80932296      15.50262510      31.12148895
H       12.68187848      13.98935426      34.48984393
H       14.32409817      12.34896398      33.36279978
H       14.88565907      14.20701589      35.11275854
H       15.87701008      16.14539959      33.81001146
H       12.41634781      13.33348644      32.07454730
H       13.37728574      15.40962040      30.69094354
H       16.05565448      11.55432486      29.77010665
H       17.49856041      11.65627867      31.70490955
H       18.78259765      13.25186333      32.65337205
H        9.59067024      16.51970071      32.71271408
H       10.84821495      16.98811766      34.56812491
H       12.28852640      17.56581589      36.60065278
H       13.04738313      19.63405181      32.64140263
H       15.74417268      19.65375187      31.79101863
H       17.94985588      17.92026680      30.31312416
H       10.93135364      13.03158904      35.96980906
H       12.58299994      11.53411428      35.01422551
H       14.27860828       9.88624639      34.07061138
H       15.56022401      13.80998162      37.28755579
H       16.33729975      15.68070643      36.03536307
H       17.14576871      17.80395837      35.19018096
H       10.73982332      11.92168892      31.04745029
H       11.31461607      13.82439629      29.85934697
H       12.72517748      17.43872648      29.72096639
H       16.99324208      13.28354559      35.04043702
H       17.99182881      14.97501788      34.05833894
H       12.95562500      11.65270503      30.59134992
H       13.40320172      14.08338000      28.77184734
H       13.89756557      15.60632069      37.03352137
H       14.80064659      17.78446852      36.16571353
H       10.21291315      14.17803638      31.96591350
H       10.77611722      16.19179683      30.49039271
H       17.56007842      13.61778592      30.47120124
H       18.24969135      15.52028308      31.79031157
H       11.31340531      17.98972752      31.96909524
H       12.88949458      18.39607127      34.45605685
H       14.86501853      10.71596122      31.74460558
H       16.42164920      11.43972817      33.66183313
H       10.20680171      14.60861480      34.31898937
H       11.63010490      15.43094211      36.23323719
H       15.28526672      18.60919828      33.82859688
H       17.07597719      17.57326347      32.42605417
H       13.13279920      13.30447690      36.69287283
H       14.90973008      11.90655351      35.77158141
H       13.78173643      19.40227581      30.46160551
H       15.64206545      17.88134717      30.37872867
H       10.83509841      12.35638153      33.53532096
H       12.36290151      10.83758506      32.70741118
165
Lattice="28.8275614306564 0.0 0.0 0.0 30.0305777729276 0.0 0.0 0.0 50.503860551223895" Properties=species:S:1:pos:R:3 timestep=3000 pbc="F F F"
H       14.04380779      14.84057098      17.82654967
H       15.96378104      15.18300966      16.53567100
H       16.19757256      14.39482712      18.96889650
H       11.95265649      15.01300656      16.62213361
H       12.00714058      14.80435411      19.05505608
H       12.47922072      17.07388499      18.53693698
H       14.83898725      17.03808854      18.39638473
H       12.70805391      13.01050758      17.14969694
H       15.41369351      12.78677977      17.24055338
H       14.09898374      12.95675284      19.31954480
H       14.27229504      15.44583728      19.99089262
H       14.04879496      14.33146260      15.40044522
H       13.86870918      16.70306742      16.18946703
H       17.98188330      15.86272176      15.22923713
H       18.10604361      14.94360590      17.44004363
H       18.32129901      13.99214710      20.01412439
H        9.75590982      14.93594810      15.28903370
H        9.88912198      14.64633321      17.66029097
H        9.93590912      13.91665023      19.96781235
H       10.56942361      18.54805603      18.42714158
H       13.26797163      19.23966023      18.51011943
H       15.82912750      19.15950862      19.09439859
H       11.82065508      10.82320041      16.57415494
H       14.18431333      10.68496966      16.47415730
H       16.50106913      11.01017079      16.21840575
H       14.01146327      10.71848379      21.05334233
H       16.47933315      14.94603837      21.51979599
H       13.89612419      18.84430767      20.54628357
H       13.84806865      13.84703935      13.03272323
H       14.04043497      16.33255015      13.52862064
H       13.83890149      18.62856800      14.57814136
H       16.49677382      12.19142357      20.28017873
H       17.61868486      18.43874472      20.32467263
H       15.97127620      15.00126461      14.25319952
H       15.97660930      17.18034339      15.03479727
H       11.94415236      11.90400091      20.60522158
H       10.93599488      15.83019864      21.22601503
H       11.82662239      14.35191342      14.14956560
H       11.74737542      16.76847402      14.85848829
H       17.03037198      17.38121793      17.29479453
H       17.65662193      16.38555412      19.35378642
H       10.26563876      16.71321775      16.87005706
H        9.94547987      16.51468560      19.15126594
H       17.32622925      13.21087159      15.81220320
H       17.53078962      12.34079566      18.10820970
H       10.63973403      12.95951565      16.00229973
H       10.90964649      12.40283883      18.37724377
H       11.68992209      18.11988005      20.60714072
H       15.71871794      17.06917019      20.98516212